#!/usr/bin/env bash
#                          .         .
####   8888888888            ,8.       ,8.           8 8888    d888888o.   8 8888        8 8 888888888o.      ,o888888o.      ####
####   8888                 ,888.     ,888.          8 8888  .`8888:' `88. 8 8888        8 8 8888    `88.    8888     `88.    ####
####   8888                .`8888.   .`8888.         8 8888  8.`8888.   Y8 8 8888        8 8 8888     `88 ,8 8888       `8.   ####
####   8888               ,8.`8888. ,8.`8888.        8 8888  `8.`8888.     8 8888        8 8 8888     ,88 88 8888             ####
####   888888888888      ,8'8.`8888,8^8.`8888.       8 8888   `8.`8888.    8 8888        8 8 8888.   ,88' 88 8888             ####
####   8888             ,8' `8.`8888' `8.`8888.      8 8888    `8.`8888.   8 8888        8 8 888888888P'  88 8888             ####
####   8888            ,8'   `8.`88'   `8.`8888.     8 8888     `8.`8888.  8 8888888888888 8 8888`8b      88 8888             ####
####   8888           ,8'     `8.`'     `8.`8888.    8 8888 8b   `8.`8888. 8 8888        8 8 8888 `8b.    `8 8888       .8'   ####
####   8888          ,8'       `8        `8.`8888.   8 8888 `8b.  ;8.`8888 8 8888        8 8 8888   `8b.     8888     ,88'    ####
####   888888888888 ,8'         `         `8.`8888.  8 8888  `Y8888P ,88P' 8 8888        8 8 8888     `88.    `8888888P'      ####

##  +-+-+-+-+-+-+-+-+-+ +-+-+-+-+
##  |D|e|b|u|g|g|i|n|g| |I|n|f|o|
##  +-+-+-+-+-+-+-+-+-+ +-+-+-+-+
## Perf. optimization: https://stackoverflow.com/questions/18039751/how-to-debug-a-bash-script-and-get-execution-time-per-command
## Uncomment one of the following line for debugging this file
# PS4=$'+ $(tput sgr0)$(tput setaf 4)DEBUG ${FUNCNAME[0]:+${FUNCNAME[0]}}$(tput bold)[$(tput setaf 6)${LINENO}$(tput setaf 4)]: $(tput sgr0)'; set -o xtrace
# N=`date +%s%N`; export PS4='+[$(((`date +%s%N`-$N)/1000000))ms][${BASH_SOURCE}:${LINENO}]: ${FUNCNAME[0]:+${FUNCNAME[0]}(): }'; set -x;

##  +-+-+-+-+
##  |I|n|i|t|
##  +-+-+-+-+
## If not running interactively, don't do anything
[[ $- != *i* ]] && return

# Forces cding to sdcard because some devices default to /
cd "/sdcard" || true

# Loads inputrc
if [ -f /sdcard/.inputrc ]; then
    bind -f /sdcard/.inputrc
fi

## Returns if the current shell is a SSH shell.
# @see https://unix.stackexchange.com/a/12761
function is_ssh() {
    # For windows or other weird systems:
    if [[ ! -f /proc/1/stat ]]; then
        return 1
    fi
    p=${1:-$PPID}
    read pid name x ppid y < <(cat /proc/$p/stat)
    # or: read pid name ppid < <(ps -o pid= -o comm= -o ppid= -p $p)
    [[ "$name" =~ sshd ]] && { return 0; }
    [[ "$ppid" -le 1 ]] && { return 1; }
    is_ssh $ppid
}

## Checks if a binary or built-in command exists on PATH with failovers
function _e() {
    (hash "$1" >&/dev/null && return 0) ||
    (command -v "$1" >&/dev/null && return 0) ||
    (which "$1" >&/dev/null && return 0) || # doesn't work with built-ins
    return 1
}

###  _____           _                                      _     _   _            _       _     _
### |  ___|         (_)                                    | |   | | | |          (_)     | |   | |
### | |__ _ ____   ___ _ __ ___  _ __  _ __ ___   ___ _ __ | |_  | | | | __ _ _ __ _  __ _| |__ | | ___  ___
### |  __| '_ \ \ / / | '__/ _ \| '_ \| '_ ` _ \ / _ \ '_ \| __| | | | |/ _` | '__| |/ _` | '_ \| |/ _ \/ __|
### | |__| | | \ V /| | | | (_) | | | | | | | | |  __/ | | | |_  \ \_/ / (_| | |  | | (_| | |_) | |  __/\__ \
### \____/_| |_|\_/ |_|_|  \___/|_| |_|_| |_| |_|\___|_| |_|\__|  \___/ \__,_|_|  |_|\__,_|_.__/|_|\___||___/
## Asks for Ctrl+D to be pressed twice to exit the shell
export IGNOREEOF=1
export LS_COLORS='bd=38;5;68:ca=38;5;17:cd=38;5;113;1:di=38;5;31;1:do=38;5;127:ex=38;5;208;1:pi=38;5;126:fi=0:ln=38;5;32;3:mh=38;5;222;1:no=0:or=48;5;196;38;5;232;1:ow=38;5;31;1:sg=48;5;3;38;5;0:su=38;5;220;1;3;100;1:so=38;5;197:st=38;5;86;48;5;234:tw=48;5;235;38;5;139;3:*LS_COLORS=48;5;89;38;5;197;1;3;4;7:*README=38;5;220;1:*README.rst=38;5;220;1:*README.md=38;5;220;1:*LICENSE=38;5;220;1:*COPYING=38;5;220;1:*INSTALL=38;5;220;1:*COPYRIGHT=38;5;220;1:*AUTHORS=38;5;220;1:*HISTORY=38;5;220;1:*CONTRIBUTORS=38;5;220;1:*PATENTS=38;5;220;1:*VERSION=38;5;220;1:*NOTICE=38;5;220;1:*CHANGES=38;5;220;1:*.log=38;5;190:*.txt=38;5;186:*.etx=38;5;184:*.info=38;5;184:*.markdown=38;5;184:*.md=38;5;184:*.mkd=38;5;184:*.nfo=38;5;184:*.pod=38;5;184:*.rst=38;5;184:*.tex=38;5;184:*.textile=38;5;184:*.bib=38;5;178:*.json=38;5;178:*.msg=38;5;178:*.pgn=38;5;178:*.rss=38;5;178:*.xml=38;5;178:*.yaml=38;5;178:*.yml=38;5;178:*.RData=38;5;178:*.rdata=38;5;178:*.cbr=38;5;141:*.cbz=38;5;141:*.chm=38;5;141:*.djvu=38;5;141:*.pdf=38;5;141:*.PDF=38;5;141:*.mobi=38;5;141:*.epub=38;5;141:*.docm=38;5;111;4:*.doc=38;5;111:*.docx=38;5;111:*.eps=38;5;111:*.ps=38;5;111:*.odb=38;5;111:*.odt=38;5;111:*.rtf=38;5;111:*.odp=38;5;166:*.pps=38;5;166:*.ppt=38;5;166:*.pptx=38;5;166:*.ppts=38;5;166:*.pptxm=38;5;166;4:*.pptsm=38;5;166;4:*.csv=38;5;78:*.ods=38;5;112:*.xla=38;5;76:*.xls=38;5;112:*.xlsx=38;5;112:*.xlsxm=38;5;112;4:*.xltm=38;5;73;4:*.xltx=38;5;73:*cfg=1:*conf=1:*rc=1:*.ini=1:*.plist=1:*.viminfo=1:*.pcf=1:*.psf=1:*.git=38;5;197:*.gitignore=38;5;240:*.gitattributes=38;5;240:*.gitmodules=38;5;240:*.awk=38;5;172:*.bash=38;5;172:*.bat=38;5;172:*.BAT=38;5;172:*.sed=38;5;172:*.sh=38;5;172:*.zsh=38;5;172:*.vim=38;5;172:*.ahk=38;5;41:*.py=38;5;41:*.ipynb=38;5;41:*.rb=38;5;41:*.gemspec=38;5;41:*.pl=38;5;208:*.PL=38;5;160:*.t=38;5;114:*.msql=38;5;222:*.mysql=38;5;222:*.pgsql=38;5;222:*.sql=38;5;222:*.tcl=38;5;64;1:*.r=38;5;49:*.R=38;5;49:*.gs=38;5;81:*.clj=38;5;41:*.cljs=38;5;41:*.cljc=38;5;41:*.cljw=38;5;41:*.scala=38;5;41:*.dart=38;5;51:*.asm=38;5;81:*.cl=38;5;81:*.lisp=38;5;81:*.lua=38;5;81:*.moon=38;5;81:*.c=38;5;81:*.C=38;5;81:*.h=38;5;110:*.H=38;5;110:*.tcc=38;5;110:*.c++=38;5;81:*.h++=38;5;110:*.hpp=38;5;110:*.hxx=38;5;110:*.ii=38;5;110:*.M=38;5;110:*.m=38;5;110:*.cc=38;5;81:*.cs=38;5;81:*.cp=38;5;81:*.cpp=38;5;81:*.cxx=38;5;81:*.cr=38;5;81:*.go=38;5;81:*.f=38;5;81:*.for=38;5;81:*.ftn=38;5;81:*.nim=38;5;81:*.nimble=38;5;81:*.s=38;5;110:*.S=38;5;110:*.rs=38;5;81:*.swift=38;5;219:*.sx=38;5;81:*.vala=38;5;81:*.vapi=38;5;81:*.hi=38;5;110:*.hs=38;5;81:*.lhs=38;5;81:*.pyc=38;5;240:*.tf=38;5;168:*.tfstate=38;5;168:*.tfvars=38;5;168:*.css=38;5;125;1:*.less=38;5;125;1:*.sass=38;5;125;1:*.scss=38;5;125;1:*.htm=38;5;125;1:*.html=38;5;125;1:*.jhtm=38;5;125;1:*.mht=38;5;125;1:*.eml=38;5;125;1:*.mustache=38;5;125;1:*.coffee=38;5;074;1:*.java=38;5;074;1:*.js=38;5;074;1:*.mjs=38;5;074;1:*.jsm=38;5;074;1:*.jsm=38;5;074;1:*.jsp=38;5;074;1:*.php=38;5;81:*.ctp=38;5;81:*.twig=38;5;81:*.vb=38;5;81:*.vba=38;5;81:*.vbs=38;5;81:*Dockerfile=38;5;155:*.dockerignore=38;5;240:*Makefile=38;5;155:*MANIFEST=38;5;243:*pm_to_blib=38;5;240:*.rake=38;5;155:*.am=38;5;242:*.in=38;5;242:*.hin=38;5;242:*.scan=38;5;242:*.m4=38;5;242:*.old=38;5;242:*.out=38;5;242:*.SKIP=38;5;244:*.diff=48;5;197;38;5;232:*.patch=48;5;197;38;5;232;1:*.bmp=38;5;97:*.tiff=38;5;97:*.tif=38;5;97:*.TIFF=38;5;97:*.cdr=38;5;97:*.flif=38;5;97:*.gif=38;5;97:*.ico=38;5;97:*.jpeg=38;5;97:*.JPG=38;5;97:*.jpg=38;5;97:*.nth=38;5;97:*.png=38;5;97:*.psd=38;5;97:*.xpm=38;5;97:*.webp=38;5;97:*.ai=38;5;99:*.eps=38;5;99:*.epsf=38;5;99:*.drw=38;5;99:*.ps=38;5;99:*.svg=38;5;99:*.avi=38;5;114:*.divx=38;5;114:*.IFO=38;5;114:*.m2v=38;5;114:*.m4v=38;5;114:*.mkv=38;5;114:*.MOV=38;5;114:*.mov=38;5;114:*.mp4=38;5;114:*.mpeg=38;5;114:*.mpg=38;5;114:*.ogm=38;5;114:*.rmvb=38;5;114:*.sample=38;5;114:*.wmv=38;5;114:*.3g2=38;5;115:*.3gp=38;5;115:*.gp3=38;5;115:*.webm=38;5;115:*.gp4=38;5;115:*.asf=38;5;115:*.flv=38;5;115:*.ts=38;5;115:*.ogv=38;5;115:*.f4v=38;5;115:*.VOB=38;5;115;1:*.vob=38;5;115;1:*.3ga=38;5;137;1:*.S3M=38;5;137;1:*.aac=38;5;137;1:*.au=38;5;137;1:*.dat=38;5;137;1:*.dts=38;5;137;1:*.fcm=38;5;137;1:*.m4a=38;5;137;1:*.mid=38;5;137;1:*.midi=38;5;137;1:*.mod=38;5;137;1:*.mp3=38;5;137;1:*.mp4a=38;5;137;1:*.oga=38;5;137;1:*.ogg=38;5;137;1:*.opus=38;5;137;1:*.s3m=38;5;137;1:*.sid=38;5;137;1:*.wma=38;5;137;1:*.ape=38;5;136;1:*.aiff=38;5;136;1:*.cda=38;5;136;1:*.flac=38;5;136;1:*.alac=38;5;136;1:*.midi=38;5;136;1:*.pcm=38;5;136;1:*.wav=38;5;136;1:*.wv=38;5;136;1:*.wvc=38;5;136;1:*.afm=38;5;66:*.fon=38;5;66:*.fnt=38;5;66:*.pfb=38;5;66:*.pfm=38;5;66:*.ttf=38;5;66:*.otf=38;5;66:*.PFA=38;5;66:*.pfa=38;5;66:*.7z=38;5;40:*.a=38;5;40:*.arj=38;5;40:*.bz2=38;5;40:*.cpio=38;5;40:*.gz=38;5;40:*.lrz=38;5;40:*.lz=38;5;40:*.lzma=38;5;40:*.lzo=38;5;40:*.rar=38;5;40:*.s7z=38;5;40:*.sz=38;5;40:*.tar=38;5;40:*.tgz=38;5;40:*.xz=38;5;40:*.z=38;5;40:*.Z=38;5;40:*.zip=38;5;40:*.zipx=38;5;40:*.zoo=38;5;40:*.zpaq=38;5;40:*.zz=38;5;40:*.apk=38;5;215:*.deb=38;5;215:*.rpm=38;5;215:*.jad=38;5;215:*.jar=38;5;215:*.cab=38;5;215:*.pak=38;5;215:*.pk3=38;5;215:*.vdf=38;5;215:*.vpk=38;5;215:*.bsp=38;5;215:*.dmg=38;5;215:*.r[0-9]{0,2}=38;5;239:*.zx[0-9]{0,2}=38;5;239:*.z[0-9]{0,2}=38;5;239:*.part=38;5;239:*.dmg=38;5;124:*.iso=38;5;124:*.bin=38;5;124:*.nrg=38;5;124:*.qcow=38;5;124:*.sparseimage=38;5;124:*.toast=38;5;124:*.vcd=38;5;124:*.vmdk=38;5;124:*.accdb=38;5;60:*.accde=38;5;60:*.accdr=38;5;60:*.accdt=38;5;60:*.db=38;5;60:*.fmp12=38;5;60:*.fp7=38;5;60:*.localstorage=38;5;60:*.mdb=38;5;60:*.mde=38;5;60:*.sqlite=38;5;60:*.typelib=38;5;60:*.nc=38;5;60:*.pacnew=38;5;33:*.un~=38;5;241:*.orig=38;5;241:*.BUP=38;5;241:*.bak=38;5;241:*.o=38;5;241:*core=38;5;241:*.rlib=38;5;241:*.swp=38;5;244:*.swo=38;5;244:*.tmp=38;5;244:*.sassc=38;5;244:*.pid=38;5;248:*.state=38;5;248:*lockfile=38;5;248:*lock=38;5;248:*.err=38;5;160;1:*.error=38;5;160;1:*.stderr=38;5;160;1:*.aria2=38;5;241:*.dump=38;5;241:*.stackdump=38;5;241:*.zcompdump=38;5;241:*.zwc=38;5;241:*.pcap=38;5;29:*.cap=38;5;29:*.dmp=38;5;29:*.DS_Store=38;5;239:*.localized=38;5;239:*.CFUserTextEncoding=38;5;239:*.allow=38;5;112:*.deny=38;5;196:*.service=38;5;45:*@.service=38;5;45:*.socket=38;5;45:*.swap=38;5;45:*.device=38;5;45:*.mount=38;5;45:*.automount=38;5;45:*.target=38;5;45:*.path=38;5;45:*.timer=38;5;45:*.snapshot=38;5;45:*.application=38;5;116:*.cue=38;5;116:*.description=38;5;116:*.directory=38;5;116:*.m3u=38;5;116:*.m3u8=38;5;116:*.md5=38;5;116:*.properties=38;5;116:*.sfv=38;5;116:*.srt=38;5;116:*.sub=38;5;116:*.theme=38;5;116:*.torrent=38;5;116:*.urlview=38;5;116:*.asc=38;5;192;3:*.bfe=38;5;192;3:*.enc=38;5;192;3:*.gpg=38;5;192;3:*.signature=38;5;192;3:*.sig=38;5;192;3:*.p12=38;5;192;3:*.pem=38;5;192;3:*.pgp=38;5;192;3:*.asc=38;5;192;3:*.enc=38;5;192;3:*.sig=38;5;192;3:*.p7s=38;5;192;3:*.32x=38;5;213:*.cdi=38;5;213:*.fm2=38;5;213:*.rom=38;5;213:*.sav=38;5;213:*.st=38;5;213:*.a00=38;5;213:*.a52=38;5;213:*.A64=38;5;213:*.a64=38;5;213:*.a78=38;5;213:*.adf=38;5;213:*.atr=38;5;213:*.gb=38;5;213:*.gba=38;5;213:*.gbc=38;5;213:*.gel=38;5;213:*.gg=38;5;213:*.ggl=38;5;213:*.ipk=38;5;213:*.j64=38;5;213:*.nds=38;5;213:*.nes=38;5;213:*.sms=38;5;213:*.pot=38;5;7:*.pcb=38;5;7:*.mm=38;5;7:*.pod=38;5;7:*.gbr=38;5;7:*.scm=38;5;7:*.xcf=38;5;7:*.spl=38;5;7:*.Rproj=38;5;11:*.sis=38;5;7:*.1p=38;5;7:*.3p=38;5;7:*.cnc=38;5;7:*.def=38;5;7:*.ex=38;5;7:*.example=38;5;7:*.feature=38;5;7:*.ger=38;5;7:*.map=38;5;7:*.mf=38;5;7:*.mfasl=38;5;7:*.mi=38;5;7:*.mtx=38;5;7:*.pc=38;5;7:*.pi=38;5;7:*.plt=38;5;7:*.pm=38;5;7:*.rdf=38;5;7:*.ru=38;5;7:*.sch=38;5;7:*.sty=38;5;7:*.sug=38;5;7:*.t=38;5;7:*.tdy=38;5;7:*.tfm=38;5;7:*.tfnt=38;5;7:*.tg=38;5;7:*.vcard=38;5;7:*.vcf=38;5;7:*.xln=38;5;7:*.iml=38;5;166:*.xcconfig=1:*.entitlements=1:*.strings=1:*.storyboard=38;5;196:*.xcsettings=1:*.xib=38;5;208:'
_COLOR_ALWAYS_ARG="--color=always"

## Picks a hostname variable to use all around
## Works on several places including adb shells and ssh
_HOSTNAME=$(hostname | sed 's/localhost//')
_e "getprop" && _HOSTNAME=${_HOSTNAME:-$(getprop "net.hostname")}
_e "getprop" && _HOSTNAME=${_HOSTNAME:-$(getprop "ro.product.device")}
_HOSTNAME=${_HOSTNAME:-"bielefeld"}
is_ssh && _HOSTNAME="${_HOSTNAME} \[\e[01;95m\][SSH]"
_e getprop && _HOSTNAME="${_HOSTNAME} \[\e[01;95m\][ADB]"

## Sets default EDITOR environment variable
## If logged as root or in a ssh shell uses only term editors.
_e "nano" && export EDITOR="nano"
if [[ -n $DISPLAY && ! $EUID -eq 0 && ! $(is_ssh) ]]; then
    for editor in "subl3" "subl" "code" "gedit"; do
        _e "$editor" && export EDITOR=$editor
    done
fi
### ______           _       _____ _                        _   _   _ _     _
### | ___ \         | |     |  ___| |                      | | | | | (_)   | |
### | |_/ / __ _ ___| |__   | |__ | |_ ___ _ __ _ __   __ _| | | |_| |_ ___| |_ ___  _ __ _   _
### | ___ \/ _` / __| '_ \  |  __|| __/ _ \ '__| '_ \ / _` | | |  _  | / __| __/ _ \| '__| | | |
### | |_/ / (_| \__ \ | | | | |___| ||  __/ |  | | | | (_| | | | | | | \__ \ || (_) | |  | |_| |
### \____/ \__,_|___/_| |_| \____/ \__\___|_|  |_| |_|\__,_|_| \_| |_/_|___/\__\___/|_|   \__, |
###                                                                                        __/ |
###                                                                                       |___/
# Change the file location because certain bash sessions truncate .bash_history file upon close:
export HISTFILE=~/.bash_eternal_history-$USER
# Maximum number of entries on the current session (nothing is infinite):
export HISTSIZE=5000000
# Maximum number of lines in HISTFILE (nothing is infinite).
export HISTFILESIZE=10000000
# Commands to ignore and skip saving
export HISTIGNORE="clear:exit:history:ls"
# Ignores dupes and deletes old ones (latest doesn't work _quite_ properly, but does the trick)
export HISTCONTROL=ignoredups:erasedups
# Custom history time prefix format
export HISTTIMEFORMAT='[%F %T] '
# Writes multiline commands on the history as multiline entries
shopt -s cmdhist
shopt -s lithist
# Appends to history after every command instead of only after the shell session ends.
shopt -s histappend

###  _   _ _   _ _
### | | | | | (_) |
### | | | | |_ _| |___
### | | | | __| | / __|
### | |_| | |_| | \__ \
###  \___/ \__|_|_|___/

# Loads auto-complete stuff
if [ -f /sdcard/.bash-completion/bash_completion ]; then
    . /sdcard/.bash-completion/bash_completion 2>/dev/null
fi

## True screen clearing
function clear() {
    echo -en "\033c"
}

##  +-+-+-+-+-+-+-+-+-+-+-+-+-+
##  |s|e|l|e|c|t|_|o|p|t|i|o|n|
##  +-+-+-+-+-+-+-+-+-+-+-+-+-+
# Amazing bash-only menu selector
# Taken from http://tinyurl.com/y5vgfon7
# Further edits by @emi
function select_option() {
    ESC=$(printf "\033")
    cursor_blink_on() { printf "${ESC}[?25h"; }
    cursor_blink_off() { printf "${ESC}[?25l"; }
    cursor_to() { printf "${ESC}[$1;${2:-1}H"; }
    print_option() { printf "   $1 "; }
    print_selected() { printf "  ${ESC}[7m $1 ${ESC}[27m"; }
    get_cursor_row() {
        IFS=';' read -sdR -p $'\E[6n' ROW COL
        echo ${ROW#*\[}
    }
    key_input() {
        read -s -n3 key 2>/dev/null >&2
        if [[ $key == $ESC\[A ]]; then echo up; fi
        if [[ $key == $ESC\[B ]]; then echo down; fi
        if [[ $key == "" ]]; then echo enter; fi
    }
    for opt; do printf "\n"; done
    local lastrow=$(get_cursor_row)
    local startrow=$(($lastrow - $#))
    trap "cursor_blink_on; stty echo; printf '\n'; trap - SIGINT; return 255;" SIGINT
    cursor_blink_off
    local selected=0
    while true; do
        local idx=0
        for opt; do
            cursor_to $(($startrow + $idx))
            if [ $idx -eq $selected ]; then print_selected "$opt"; else print_option "$opt"; fi
            ((idx++))
        done
        case $(key_input) in
        enter)
            break
            ;;
        up)
            ((selected--))
            if [ $selected -lt 0 ]; then selected=$(($# - 1)); fi
            ;;
        down)
            ((selected++))
            if [ $selected -ge $# ]; then selected=0; fi
            ;;
        esac
    done
    cursor_to $lastrow
    printf "\n"
    cursor_blink_on
    trap - SIGINT
    return $selected
}

##  +-+-+-+-+-+-+-+-+-+-+-+-+-+-+-+
##  |f|o|r|m|a|t|_|d|u|r|a|t|i|o|n|
##  +-+-+-+-+-+-+-+-+-+-+-+-+-+-+-+
## Formats seconds into more pretty H:M:S
## Stolen from: https://bit.ly/3nJQFwp
function format_duration() {
    T=$1
    S=$((T % 60))
    M=$((T / 60 % 60))
    H=$((T / 60 / 60 % 24))
    D=$((T / 60 / 60 / 24))
    [[ $D -gt 0 ]] && printf '%dd%dh' $D $H ||
        ([[ $H -gt 0 ]] && printf '%dh%dm' $H $M) ||
        ([[ $M -gt 0 ]] && printf '%dm%ds' $M $S) ||
        printf "%ds" $S
}

##  +-+-+-+-+-+-+-+-+-+-+-+-+-+-+-+-+-+
##  |g|e|t|_|t|r|u|n|c|a|t|e|d|_|p|w|d|
##  +-+-+-+-+-+-+-+-+-+-+-+-+-+-+-+-+-+
## Returns a truncated $PWD depending on window width
function _get_truncated_pwd() {
    local tilde="~"
    local newPWD="${PWD/#${HOME}/${tilde}}"
    local pwdmaxlen="$((${COLUMNS:-80} / 4))"
    [[ "${#newPWD}" -gt "${pwdmaxlen}" ]] && newPWD="…${newPWD:3-$pwdmaxlen}"
    echo -n "${newPWD}"
}

#  _____       _
# /  __ \     | |
# | /  \/ ___ | | ___  _ __ ___
# | |    / _ \| |/ _ \| '__/ __|
# | \__/\ (_) | | (_) | |  \__ \
#  \____/\___/|_|\___/|_|  |___/
## Magic with `less` (like colors and other cool stuff)
export LESS="R-P ?c<- .?f%f:Standard input.  ?n:?eEND:?p%pj\%.. .?c%ccol . ?mFile %i of %m  .?xNext\ %x.%t   Press h for help"

## Magic with man pages (colors mainly)
export LESS_TERMCAP_mb=$'\E[01;31m'
export LESS_TERMCAP_md=$'\E[01;31m'
export LESS_TERMCAP_me=$'\E[0m'
export LESS_TERMCAP_se=$'\E[0m'
export LESS_TERMCAP_so=$'\E[01;44;33m'
export LESS_TERMCAP_ue=$'\E[0m'
export LESS_TERMCAP_us=$'\E[01;32m'

###  _____  _____ _      ______         _
### |  _  ||  _  | |     |  ___|       | |
### | | | || | | | |     | |_ ___  __ _| |_ _   _ _ __ ___  ___
### | | | || | | | |     |  _/ _ \/ _` | __| | | | '__/ _ \/ __|
### \ \/' /\ \_/ / |____ | ||  __/ (_| | |_| |_| | | |  __/\__ \
###  \_/\_\ \___/\_____/ \_| \___|\__,_|\__|\__,_|_|  \___||___/

##  +-+-+-+-+-+ +-+-+-+-+-+-+-+ +-+-+-+-+-+-+
##  |S|w|i|f|t| |H|i|s|t|o|r|y| |S|e|a|r|c|h|
##  +-+-+-+-+-+ +-+-+-+-+-+-+-+ +-+-+-+-+-+-+
## Fancy way of quickly grepping the command history.
## An alternative to Ctrl+R that supports regex.
## Example:
##   h 'clone.*gitlab'
## Will show a list with all previous commands that match
## the regex 'clone.*gitlab'. The number prefixing each entry
## is the command history position, meaning that if you want to
## replay a particular entry with the number 4513, you can run:
##   !!4513
function h() {
    # Workaround for the lack of
    # multidimensional arrays in bash.
    local results_cmds=()
    local results_nums=()
    local query="${@}"

    readarray -d '' grepped_history < <(history | \grep -ZE -- "$query")
    while read -r entry; do
        local number="${entry// */}"
        local datetime="${entry#*[}"
        datetime="${datetime%] *}"
        local cmd="${entry##$number*$datetime] }"
        # Strips repeated results
        if [[ ! "${results_cmds[*]}" =~ $cmd ]]; then
            results_cmds+=("$cmd")
            results_nums+=("$number")
        fi
    done < <(echo "${grepped_history[@]}")

    local string
    for r in "${!results_cmds[@]}"; do
        cmd=$(echo "${results_cmds[$r]}" | \grep -E --color=always "$query")
        line="\e[01;96m${results_nums[$r]} \e[00m$cmd\e[00m"
        printf "$line\n"
    done
}

##  +-+-+-+-+ +-+-+-+-+-+-+-+
##  |E|a|s|y| |E|x|t|r|a|c|t|
##  +-+-+-+-+ +-+-+-+-+-+-+-+
## Extracts compressed and archived files of any type
## without having to remember every single fucking argument
## for every single fucking compressed file extension
function extract() {
    for n in "$@"; do
        if [ -f "$n" ]; then
            case "${n%,}" in
            *.cbt | *.tar.bz2 | *.tar.gz | *.tar.xz | *.tbz2 | *.tgz | *.txz | *.tar)
                tar xvf "$n"
                ;;
            *.lzma) unlzma ./"$n" ;;
            *.bz2) bunzip2 ./"$n" ;;
            *.cbr | *.rar) unrar x -ad ./"$n" ;;
            *.gz) gunzip ./"$n" ;;
            *.cbz | *.epub | *.zip) unzip ./"$n" ;;
            *.z) uncompress ./"$n" ;;
            *.7z | *.arj | *.cab | *.cb7 | *.chm | *.deb | *.dmg | *.iso | *.lzh | *.msi | *.pkg | *.rpm | *.udf | *.wim | *.xar)
                7z x ./"$n"
                ;;
            *.xz) unxz ./"$n" ;;
            *.exe) cabextract ./"$n" ;;
            *.cpio) cpio -id <./"$n" ;;
            *.cba | *.ace) unace x ./"$n" ;;
            *)
                echo "extract: '$n' - unknown archive method"
                return 1
                ;;
            esac
        else
            echo "'$n' - file does not exist"
            return 1
        fi
    done
}

##  +-+-+-+-+-+-+
##  |F|I|N|D|I|R|
##  +-+-+-+-+-+-+
## Finds directories recursively, and shows select_option
## afterwards if less than 20 results.
function findir() {
    readarray -d '' results < <(find . -path "*node_modules*" -prune -o -type d -iname \*"${1}"\* -print0 2>/dev/null)

    if [[ ${#results[@]} -eq 1 ]]; then
        # If there's an unique result for the argument, cd into it:
        cd "${results[0]}"
    elif [[ ${#results[@]} -eq 0 || ${#results[@]} -gt 20 ]]; then
        printf '%s\n' "${results[@]}"
    else
        # Let the user choose
        select_option "${results[@]}"
        cd "${results[$?]}"
    fi
}


###   ___  _ _                                        _    _____                     _     _
###  / _ \| (_)                                      | |  |  _  |                   (_)   | |
### / /_\ \ |_  __ _ ___  ___  ___     __ _ _ __   __| |  | | | |_   _____ _ __ _ __ _  __| | ___  ___
### |  _  | | |/ _` / __|/ _ \/ __|   / _` | '_ \ / _` |  | | | \ \ / / _ \ '__| '__| |/ _` |/ _ \/ __|
### | | | | | | (_| \__ \  __/\__ \  | (_| | | | | (_| |  \ \_/ /\ V /  __/ |  | |  | | (_| |  __/\__ \
### \_| |_/_|_|\__,_|___/\___||___/   \__,_|_| |_|\__,_|   \___/  \_/ \___|_|  |_|  |_|\__,_|\___||___/

##  +-+-+-+-+-+ +-+-+-+-+
##  |S|p|i|c|y| |G|r|e|p|
##  +-+-+-+-+-+ +-+-+-+-+
## This makes grep run without the extra arguments unless it's being either piped:
##   cat ~/.bashrc | grep "LESS"
## or normally ran interactively:
##   grep ~/.bashrc "^export"
## This way it'll work for <(grep ..) or var=$(grep ..) or echo '' | grep
## but won't affect scripts or other complex command chains.
##
## It also fixes errors when stupid programs like adb or docker use grep
## to filter autocompletion results screwing the list when pressing TAB.
##
## This is a replacement for the old 'alias grep="grep -n -C 2 $_COLOR_ALWAYS_ARG -E"'
function grep {
    if [ -t 0 ] || [ -t 1 ]; then
        command grep -n -C 2 $_COLOR_ALWAYS_ARG -E "$@"
    elif { [ "$(LC_ALL=C stat -c %F - <&3)" = fifo ]; } 3>&1 ||
           [ "$(LC_ALL=C stat -c %F -)" = fifo ] ||
           [ -t 2 ]; then
        # t -2 fixes adb -s [TAB] and other autocompletion
        command grep "$@"
    else
        command grep "$@"
    fi
}

##  +-+-+-+-+-+-+-+-+-+-+ +-+-+-+-+-+-+-+
##  |O|v|e|r|r|i|d|i|n|g| |A|l|i|a|s|e|s|
##  +-+-+-+-+-+-+-+-+-+-+ +-+-+-+-+-+-+-+
## Makes diff decent
if _e colordiff; then
    alias diff="colordiff -B -U 5 --suppress-common-lines"
else
    alias diff="diff $_COLOR_ALWAYS_ARG -B -U 5 --suppress-common-lines"
fi
## Watch defaults
if watch --help | grep -qm1 color; then
    alias watch="watch --color -n 0.5"
else
    alias watch="watch -n 0.5"
fi
## Colors on DF
alias df="${GRC}df -H"
## Makes dd pretty and with progress bar
alias dd="dd status=progress oflag=sync"

###########
# Aliases #
###########
## Navigation
alias clear='_clear'
alias mkdir="mkdir -p"
alias ls='ls -ltr --color=always'
alias diff="diff -w -B -U 5"
alias watch='watch -n0.5'
alias dmesg='dmesg -Tw'
# Makes sed useful
alias sed="sed -E"
alias logcat="logcat -b all -v color,usec,uid"


###                                                                                                                      .         .
###  8888888 8888888888 8 8888        8 8 8888888888             8 888888888o   8 888888888o.      ,o888888o.           ,8.       ,8.          8 888888888o 8888888 8888888888
###        8 8888       8 8888        8 8 8888                   8 8888    `88. 8 8888    `88.  . 8888     `88.        ,888.     ,888.         8 8888    `88.     8 8888
###        8 8888       8 8888        8 8 8888                   8 8888     `88 8 8888     `88 ,8 8888       `8b      .`8888.   .`8888.        8 8888     `88     8 8888
###        8 8888       8 8888        8 8 8888                   8 8888     ,88 8 8888     ,88 88 8888        `8b    ,8.`8888. ,8.`8888.       8 8888     ,88     8 8888
###        8 8888       8 8888        8 8 888888888888           8 8888.   ,88' 8 8888.   ,88' 88 8888         88   ,8'8.`8888,8^8.`8888.      8 8888.   ,88'     8 8888
###        8 8888       8 8888        8 8 8888                   8 888888888P'  8 888888888P'  88 8888         88  ,8' `8.`8888' `8.`8888.     8 888888888P'      8 8888
###        8 8888       8 8888888888888 8 8888                   8 8888         8 8888`8b      88 8888        ,8P ,8'   `8.`88'   `8.`8888.    8 8888             8 8888
###        8 8888       8 8888        8 8 8888                   8 8888         8 8888 `8b.    `8 8888       ,8P ,8'     `8.`'     `8.`8888.   8 8888             8 8888
###        8 8888       8 8888        8 8 8888                   8 8888         8 8888   `8b.   ` 8888     ,88' ,8'       `8        `8.`8888.  8 8888             8 8888
###        8 8888       8 8888        8 8 888888888888           8 8888         8 8888     `88.    `8888888P'  ,8'         `         `8.`8888. 8 8888             8 8888
## Install 'fortune', 'cowsay' and 'lolcat' and have fun every time you open up a terminal.
[[ "$PS1" ]] && _e "fortune" "cowthink" "lolcat" && fortune -s -n 200 | cowthink | lolcat -F 0.1 -p 30 -S 1

function _pre_command() {
    # Show the currently running command in the terminal title:
    # *see http://www.davidpashley.com/articles/xterm-titles-with-bash.html
    # *see https://gist.github.com/fly-away/751f32e7f6150419697d
    # *see https://goo.gl/xJMzHG

    # Instead of using $BASH_COMMAND, which doesn't deals with aliases,
    # uses an awesome tip by @zeroimpl. It's scary, touch it and it breaks!!!
    # *see https://goo.gl/2ZFDfM
    local this_command="$(HISTTIMEFORMAT= history 1 | \sed -E 's/^[ ]*[0-9]*[ ]*//')"
    case "$this_command" in
    *\033]0* | set_prompt* | echo* | printf* | cd* | ls)
        # The command is trying to set the title bar as well;
        # this is most likely the execution of $PROMPT_COMMAND.
        # In any case nested escapes confuse the terminal, so don't
        # output them.
        ;;
    *)
        # Changes the terminal title to the command that is going to be run
        # uses printf in case there are scapes characters on the command, which
        # would block the rendering.
        printf "\033]0;${this_command%% *}\007"
        ;;
    esac

    # Small fix that clears up all prompt colors, so we don't colorize any output by mistake
    echo -ne "\e[0m"
}

function _set_prompt() {
    # Must come first
    _last_command=$?

    # Saves on history after each command
    history -a
    # Read back from history file
    # history -n
    # Not working crazy shit that's supposed to actually erase previous dups (https://goo.gl/DXAcPO)
    # history -n; history -w; history -c; history -r;

    # Colors
    local Blue='\[\e[01;34m\]'
    local Bluelly='\[\e[38;5;31;1m\]'
    local White='\[\e[01;37m\]'
    local Violet='\[\e[01;35m\]'
    local Magenta='\[\e[01;36m\]'
    local Red='\[\e[00;31m\]'
    local RedBold='\[\e[01;31m\]'
    local Green='\[\e[00;32m\]'
    local GreenBold='\[\e[01;32m\]'
    local GreenLight='\[\e[01;92m\]'
    local YellowLight='\[\e[01;93m\]'
    local VioletLight='\[\e[01;95m\]'
    local PinkLight='\[\e[00;91m\]'
    local GrayBold='\[\e[01;98m\]'
    local GrayBackground='\[\e[01;40m\]'
    local Yellow='\[\e[00;33m\]'
    local YellowBold='\[\e[01;33m\]'
    # 1337 users get different colors
    # a.k.a: warns if you're in a root shell

    local Reset='\[\e[00m\]'
    # local FancyX='\342\234\227'
    # local Checkmark='\342\234\223'
    local FancyX='✘'
    local Checkmark='✔'

    # Prints  ---\n\n after previous command without spawning
    # a newline after it, so you can actually easily notice
    # if it's output has an EOF linebreak.
    PS1="$Yellow---$Reset\\n\\n"

    # Prints the error code
    if [[ $_last_command == 0 ]]; then
        PS1+="$GreenBold$Checkmark ${White}000 "
        PS1+="$GreenBold$USER${__cHost}@${_HOSTNAME}"
    else
        PS1+="$RedBold$FancyX ${White}$(printf "%03d" $_last_command) "
        PS1+="$RedBold$USER${__cHost}@${_HOSTNAME}"
    fi

    # Sets the prompt color according to
    # user (if logged in as root gets red)
    if [[ $(id -u) -eq 0 ]]; then
        PS1+=" $Bluelly\\w\\n${RedBold}\\\$ ${Red}"
    else
        PS1+=" $Bluelly\\w\\n${YellowBold}\\\$ ${Yellow}"
    fi

    # Aligns stuff when you don't close quotes
    PS2=" | "

    # Debug (PS4)
    # ** Does not work if set -x is used outside an script :( **
    # It works wonderfully if you copy this to the script and apply set -x there though.
    #PS4=$'+ $(tput sgr0)$(tput setaf 4)DEBUG ${FUNCNAME[0]:+${FUNCNAME[0]}}$(tput bold)[$(tput setaf 6)${LINENO}$(tput setaf 4)]: $(tput sgr0)'

    ## Time right aligned
    # @see: https://superuser.com/questions/187455/right-align-part-of-prompt
    # Update: now with the time it took to run the previous command!
    printf -v PS1RHS "\e[0m[ \e[0;0;33m%(%b %d %H:%M:%S)T \e[0m]" -1 # -1 is current time

    # Strip ANSI commands before counting length
    # From: https://www.commandlinefu.com/commands/view/12043/remove-color-special-escape-ansi-codes-from-text-with-sed
    PS1RHS_stripped=$(echo "$PS1RHS" | sed -e "s,\x1B\[[0-9;]*[a-zA-Z],,g")

    # Reference: https://en.wikipedia.org/wiki/ANSI_escape_code
    local Save='\e[s' # Save cursor position
    local Rest='\e[u' # Restore cursor to save point

    # Save cursor position, jump to right hand edge, then go left N columns where